% Model:              Design - Copy.mph
% Version:            COMSOL 6.0.0.318
% Date:               Sep 10 2022, 19:43
% Dimension:          1
% Nodes:              15
% Expressions:        1
% Description:        Global
% x                       Voltage
20                        8.194846043211601
25                        9.7411133526857
30                        10.991449713633433
35                        12.086382861677574
40                        13.130829866159434
45                        14.20731138375433
50                        15.391088331388914
55                        16.754893739218854
60                        18.394580867009186
65                        20.441752498585682
70                        23.098763468614038
75                        26.706184619509983
80                        31.89660439691689
85                        40.00471837708577
90                        54.434570383957656
