% Model:              Design.mph
% Version:            COMSOL 6.0.0.318
% Date:               Sep 11 2022, 02:19
% Dimension:          1
% Nodes:              5
% Expressions:        1
% Description:        Global
% x                       Voltage
99.99999999999999         1.3109986939152574
679.9999999999999         1.3109986939152802
1000                      1.3109986939153038
2000                      1.3109986939152702
4700                      1.3109986939153877
